"cid","name","formula","step","T","pKa","smiles_below","smiles_above"
,"5-Methylquinoline","C10H9N",1,20,5.2,,
,"5-Amino-1-naphthol","C10H9NO",1,25,3.97,,
,"6-Methoxyquinoline","C10H9NO",1,20,5.03,,
,"1H-Indole-3-acetic acid","C10H9NO2",1,,4.75,,
,"o-Methylcinnamic acid","C10H10O2",1,25,4.5,,
,"m-Methylcinnamic acid","C10H10O2",1,25,4.44,,
,"p-Methylcinnamic acid","C10H10O2",1,25,4.56,,
,"Dideoxyinosine","C10H12N4O3",1,,9.12,,
,"5,6,7,8-Tetrahydro-2-naphthalenol","C10H12O",1,25,10.48,,
,"Benzenebutanoic acid","C10H12O2",1,25,4.76,,
,"Propyl 3,4,5-trihydroxybenzoate","C10H12O5",1,,8.11,,
,"5’-Adenylic","C10H14N5O7P",1,,3.8,,
,"5’-Adenylic","C10H14N5O7P",2,,6.2,,
,"N-tert-Butylaniline","C10H15N",1,25,7,,
,"N,N-Diethylaniline","C10H15N",1,25,6.57,,
,"L-Argininosuccinic acid","C10H18N4O5",1,25,1.62,,
,"L-Argininosuccinic acid","C10H18N4O5",2,25,2.7,,
,"L-Argininosuccinic acid","C10H18N4O5",3,25,4.26,,
,"L-Argininosuccinic acid","C10H18N4O5",4,25,9.58,,
,"Bornylamine","C10H19N",1,25,10.17,,
,"Neobornylamine","C10H19N",1,25,10.01,,
,"Butylcyclohexylamine","C10H21N",1,25,11.23,,
,"1,2,2,6,6-Pentamethylpiperidine","C10H21N",1,30,11.25,,
,"Decylamine","C10H23N",1,25,10.64,,
,"1H-Perimidine","C11H8N2",1,20,6.35,,
,"Methyl-1-naphthylamine","C11H11N",1,27,3.67,,
,"Sulfamethoxypyridazine","C11H12N4O3S",1,,6.7,,
,"Mefluidide","C11H13F3N2O3S",1,,4.6,,
,"Hydrastinine","C11H13NO3",1,,11.38,,
,"N,N-Diethyl-2-methylaniline","C11H17N",1,25,7.24,,
,"Methoxamine hydrochloride","C11H18ClNO3",1,25,9.2,,
,"Undecylamine","C11H25N",1,25,10.63,,
,"Methylphosphonothioic acid S[2-[bis(1-isopropyl)amino]-ethyl], O-ethylester","C11H26NO2PS",1,,7.9,,
,"Phenazine","C12H8N2",1,20,1.2,,
,"2-Benzylpyridine","C12H11N",1,25,5.13,,
,"4-Aminoazobenzene","C12H11N3",1,25,2.82,,
,"Iocetamic acid","C12H13I3N2O3",1,,4,,
,"N,N-Dimethyl-1-naphthylamine","C12H13N",1,25,4.83,,
,"N,N-Dimethyl-2-naphthylamine","C12H13N",1,25,4.57,,
,"Sulfamethazine","C12H14N4O2S",1,,7.4,,
,"Sulfamethazine","C12H14N4O2S",2,,2.65,,
,"Sulfacytine","C12H14N4O3S",1,,6.9,,
,"α-Maltose","C12H22O11",1,21,12.05,,
,"Dodecylamine","C12H27N",1,25,10.63,,
,"Acridine","C13H9N",1,20,5.58,,
,"Phenanthridine","C13H9N",1,20,5.58,,
,"9-Acridinamine","C13H10N2",1,20,9.99,,
,"2-Phenylbenzimidazole","C13H10N2",1,25,5.23,,
,"2-Phenylbenzimidazole","C13H10N2",2,25,11.91,,
,"2-Phenylbenzoic acid","C13H10O2",1,25,3.46,,
,"2-Phenoxybenzoic acid","C13H10O3",1,25,3.53,,
,"3-Phenoxybenzoic acid","C13H10O3",1,25,3.95,,
,"4-Phenoxybenzoic acid","C13H10O3",1,25,4.57,,
,"3,6-Acridinediamine","C13H11N3",1,20,9.65,,
,"Ethacrynic acid","C13H12Cl2O4",1,,3.5,,
,"Sulfabenzamide","C13H12N2O3S",1,25,4.57,,
,"4-Benzylaniline","C13H13N",1,25,2.17,,
,"Harmaline","C13H14N2O13",1,,4.2,,
,"Imazapyr","C13H15N3O3",1,,1.9,,
,"Imazapyr","C13H15N3O3",2,,3.6,,
,"4-[(Dipropylamino)-sulfonyl]benzoic acid","C13H19NO4S",1,,5.8,,
,"2,6-Di-tert-butylpyridine","C13H21N",1,,3.58,,
,"(Tridecyl)amine","C13H29N",1,25,10.63,,
,"Perfluidone","C14H12F3NO4S2",1,,2.5,,
,"α-Phenylbenzeneacetic acid","C14H12O2",1,25,3.94,,
,"Α-Hydroxy-α-phenylbenezeneacetic acid","C14H12O3",1,25,3.04,,
,"Tolazamide","C14H21N3O3S",1,25,3.6,,
,"Atenolol","C14H22N2O3",1,,9.6,,
,"Tetradecylamine","C14H31N",1,25,10.62,,
,"Clonazepam","C15H10ClN3O3",1,,1.5,,
,"Clonazepam","C15H10ClN3O3",2,,10.5,,
,"Methyl Red","C15H15N3O2",1,,2.5,,
,"Methyl Red","C15H15N3O2",2,,9.5,,
,"NeutralRed","C15H17ClN4",1,,6.7,,
,"Imazethapyr","C15H19N3O3",1,,2.1,,
,"Imazethapyr","C15H19N3O3",2,,3.9,,
,"Pentadecylamine","C15H33N",1,25,10.61,,
,"Valium","C16H13ClN2O",1,,3.4,,
,"Chlorodiazepoxide","C16H14ClN3O",1,,4.8,,
,"Lysergic","C16H16N2O2",1,,3.44,,
,"Lysergic","C16H16N2O2",2,,7.68,,
,"Cephalexin","C16H17N3O4S",1,,5.2,,
,"Cephalexin","C16H17N3O4S",2,,7.3,,
,"Hexadecylamine","C16H35N",1,25,10.61,,
,"Apomorphine","C17H17NO2",1,,7,,
,"Apomorphine","C17H17NO2",2,,8.92,,
,"Mycophenolic acid","C17H20O6",1,,4.5,,
,"Nadolol","C17H27NO4",1,,9.67,,
,"Dibenzepin","C18H21N3O",1,,8.25,,
,"Octadecylamine","C18H39N",1,25,10.6,,
,"Bromophenol Blue","C19H10Br4O5S",1,,4,,
,"Hydroquinine","C20H26N2O2",1,,5.33,,
,"Bromocresol Green","C21H14Br4O5S",1,,4.7,,
,"Bromocresol Purple","C21H16Br2O5S",1,,6.3,,
,"CresolRed","C21H18O5S",1,,8.3,,
,"Hydrastine","C21H21NO6",1,,7.8,,
,"Furethidine","C21H31NO4",1,,7.48,,
,"Lisinopril","C21H35N3O7",1,,2.5,,
,"Lisinopril","C21H35N3O7",2,,4,,
,"Lisinopril","C21H35N3O7",3,,6.7,,
,"Lisinopril","C21H35N3O7",4,,10.1,,
,"o-Cresolphthalein","C22H18O4",1,,9.4,,
,"Droperidol","C22H22FN3O2",1,,7.64,,
,"Benzpiperylon","C22H25N3O",1,,6.73,,
,"Benzpiperylon","C22H25N3O",2,,9.13,,
,"Aconine","C25H41NO9",1,,9.52,,
,"Bromothymol Blue","C27H28Br2O5S",1,,7,,
,"Bromadiolone","C30H23BrO4",1,21,4.04,,